LAMMPS data file via write_data, version 14 May 2016, timestep = 5000001

22116 atoms
6 atom types
16310 bonds
1 bond types
13984 angles
1 angle types
11658 dihedrals
1 dihedral types

0.0000000000000000e+00 8.2429299999999998e+01 xlo xhi
-70 70 ylo yhi
0.0000000000000000e+00 8.1004000000000005e+01 zlo zhi

Masses

1 15.034
2 14.026
3 112.411
4 32.065
5 15.034
6 14.026

Atoms # molecular

17644 1222 6 4.13174 -49.4311 3.94905 -2 0 -1
10914 100 5 1.1926 -46.5349 6.22665 0 0 0
17642 1222 6 5.51862 -49.8488 1.84754 -2 0 -1
17643 1222 6 4.28949 -50.139 2.57739 -2 0 -1
17645 1222 6 5.08175 -50.009 5.01853 -2 0 -1
17646 1222 5 5.63078 -48.9055 5.98472 -2 0 -1
11808 249 5 2.31265 53.5562 6.84239 3 -1 -1
10913 100 6 0.351425 -46.1684 5.04782 0 0 0
10912 100 6 82.1906 -47.2995 4.3317 -1 0 0
15164 809 6 8.00978 -52.9016 4.048 0 1 0
15165 809 6 8.20632 -51.4514 4.02887 0 1 0
10911 100 6 0.666954 -48.0815 3.3669 0 0 0
10910 100 6 82.2656 -49.0709 2.54731 -1 0 0
10909 100 5 0.825535 -50.0611 1.69778 0 0 0
11806 249 6 4.82616 54.1759 6.76669 3 -1 -1
11718 234 5 8.08442 56.809959356 8.06363 1 0 -1
17641 1222 5 5.64621 -50.6324 0.602019 -2 0 -1
15163 809 5 8.60399 -53.5934 2.73515 0 1 0
15166 809 6 9.43012 -50.9456 4.53629 0 1 0
15167 809 6 9.83692 -49.4981 4.09709 0 1 0
15168 809 5 10.9089 -48.8727 4.98511 0 0 0
14656 724 6 17.0403 -47.5398 5.54332 2 0 -1
16312 1000 6 12.6052 55.292559356 10.2235 -2 1 2
18912 1433 5 15.104 56.565659356 5.23652 4 0 1
18911 1433 6 14.7751 55.527559356 4.0209 4 0 1
14657 724 6 18.0938 -48.5036 5.0323 2 0 -1
14655 724 6 16.1353 -48.2573 6.60555 2 0 -1
15187 813 5 14.0387 -48.5592 2.51713 0 0 0
15188 813 6 15.2317 -47.4818 2.32815 0 0 0
15189 813 6 14.8928 -45.9311 2.4047 0 0 0
15896 931 6 10.4747 -47.944 0.241975 0 0 1
15895 931 5 8.99355 -47.6467 0.655806 0 0 1
21320 1835 6 21.8323 -47.0305 6.59499 -2 0 -1
21319 1835 5 20.6339 -46.3753 7.22061 -2 0 -1
21321 1835 6 22.5933 -47.9656 7.57863 -2 0 -1
12594 380 5 21.4363 -49.6058 0.964661 3 1 -1
13031 453 6 20.0593 -52.4787 8.30529 -1 1 0
12593 380 6 21.3726 -50.6905 2.16788 3 1 -1
13032 453 5 19.8573 -51.7727 6.88854 -1 1 0
14658 724 5 18.7369 -48.2718 3.57874 2 0 -1
12592 380 6 21.2419 -52.0771 1.54697 3 1 -1
12591 380 6 21.1862 -52.9743 2.78019 3 1 -1
12362 342 6 23.2052 -47.9831 79.4534 3 0 -5
12590 380 6 20.9666 -54.3893 2.62138 3 1 -1
21322 1835 6 23.7373 -48.7802 7.04312 -2 0 -1
15538 871 6 26.1726 -54.4198 80.1196 2 0 -2
16747 1073 5 27.0493 -47.4436 1.8153 -5 1 -1
16748 1073 6 27.3593 -46.991 3.17066 -5 1 -1
15537 871 6 25.544 -54.5164 0.389927 2 0 -1
15536 871 6 26.4911 -54.6261 1.64408 2 0 -1
17161 1142 5 27.9695 -51.3858 1.21625 -1 0 0
17162 1142 6 28.9941 -51.118 0.0637297 -1 0 0
11324 169 6 29.7079 -49.8547 6.10682 1 0 3
11323 169 5 29.9631 -51.1148 5.37914 1 0 3
15539 871 6 25.2167 -54.0144 79.0949 2 0 -2
17163 1142 6 30.3592 -51.6726 0.378847 -1 0 0
12363 342 6 24.05 -46.7457 79.9452 3 0 -5
11325 169 6 30.6636 -48.721 5.8485 1 0 3
11326 169 6 30.1301 -47.4801 6.22551 1 0 3
15535 871 5 25.6961 -54.2692 2.85969 2 0 -1
21323 1835 6 24.2555 -49.9143 8.03105 -2 0 -1
21324 1835 5 25.4702 -50.7298 7.42532 -2 0 -1
21392 1847 6 36.3298 -47.4229 1.38424 2 0 4
21393 1847 6 36.7195 -48.8943 1.06996 2 0 4
21391 1847 5 35.9995 -47.1415 2.83666 2 0 4
21394 1847 6 37.1136 -49.1075 80.6587 2 0 3
17166 1142 5 33.7069 -50.7219 2.55615 -1 0 0
21395 1847 6 37.0761 -50.5099 80.2481 2 0 3
17164 1142 6 31.2212 -50.9822 1.61188 -1 0 0
17165 1142 6 32.7641 -51.5276 1.67794 -1 0 0
13739 571 6 37.3057 -49.8868 5.13024 2 1 0
13740 571 5 38.8835 -49.4647 4.83739 2 1 0
13738 571 6 36.6737 -48.958 6.0847 2 1 0
13737 571 6 35.2776 -49.3333 6.46112 2 1 0
13735 571 5 35.3728 -48.2902 8.82347 2 1 0
15943 939 5 41.1209 -49.0035 1.92832 -1 0 5
20763 1742 6 40.3485 -53.8374 5.1491 0 0 0
13736 571 6 34.6773 -48.3302 7.42118 2 1 0
21396 1847 5 37.4698 -50.6744 78.7642 2 0 3
15944 939 6 42.524 -48.9757 2.57164 -1 0 5
15945 939 6 43.0036 -50.1979 3.49669 -1 0 5
15946 939 6 44.196 -49.68 4.24815 -1 0 5
15947 939 6 45.1218 -50.8611 4.67368 -1 0 5
15948 939 5 46.3447 -50.6389 5.62169 -1 0 5
11704 232 6 44.2599 -46.7094 6.59505 0 0 2
11703 232 6 45.516 -45.9366 6.46039 0 0 2
17436 1187 5 45.5023 -46.4805 0.867015 1 0 3
20761 1742 5 41.2365 -52.7763 7.21722 0 0 0
11705 232 6 44.114 -47.6382 7.92334 0 0 2
11706 232 5 42.996 -48.7265 7.98496 0 0 2
12204 315 5 43.0596 56.122259356 0.269715 -1 0 5
17435 1187 6 46.2731 -45.119 0.870568 1 0 3
17434 1187 6 47.765 -45.272 1.27179 1 0 3
11089 130 5 50.3187 -46.2584 5.06068 3 0 1
10449 23 6 53.9398 -48.7769 8.48653 0 1 0
10450 23 6 53.2676 -49.8659 9.01989 0 1 0
19280 1495 6 59.6329 -46.3349 7.22232 3 0 2
10452 23 5 52.4054 -52.2814 8.67128 0 1 0
10451 23 6 53.3311 -51.087 8.13627 0 1 0
19282 1495 6 59.4988 -45.2052 9.39766 3 0 2
12432 353 5 52.4154 -51.0576 4.01315 2 1 1
12431 353 6 52.3083 -51.1087 2.42241 2 1 1
13834 587 6 56.0563 -48.4481 2.10114 1 1 1
13835 587 6 55.6081 -49.0717 3.40328 1 1 1
13836 587 5 56.8375 -49.8132 3.91404 1 1 1
10579 45 5 60.393 58.534759356 2.9509 1 1 3
10580 45 6 60.6986 56.986759356 3.40821 1 1 3
10582 45 6 59.8628 54.4793 3.24378 1 0 3
10581 45 6 59.7875 55.964259356 2.75175 1 1 3
10583 45 6 59.1328 54.1715 4.59055 1 0 3
10584 45 5 59.5499 55.177659356 5.90943 1 1 3
18271 1327 5 59.644 51.0475 7.839 1 0 0
19279 1495 5 60.161 -47.7585 7.73331 3 0 2
13763 575 6 65.3665 57.244059356 7.61539 1 0 1
13764 575 5 63.9688 57.620059356 8.09978 1 0 1
15462 858 5 60.8544 54.4604 80.4237 -1 -1 -6
13761 575 6 67.4613 56.009659356 8.1764 1 0 1
13762 575 6 66.1589 56.550759356 8.6752 1 0 1
14166 642 5 68.1826 -54.0628 3.84141 2 0 2
14165 642 6 67.0383 -53.1987 3.1727 2 0 2
14164 642 6 67.2736 -51.7029 2.77024 2 0 2
18003 1282 6 71.5941 -50.5326 0.804323 -1 0 5
14163 642 6 66.1053 -50.769 3.13596 2 0 2
14162 642 6 66.6633 -49.374 3.17392 2 0 2
14983 779 5 70.444 -52.4511 6.14513 -1 1 2
14984 779 6 70.2155 -51.0379 5.83768 -1 1 2
18006 1282 5 69.0871 -48.2833 80.0947 -1 0 4
18002 1282 6 71.6722 -51.7055 1.78392 -1 0 5
18004 1282 6 70.2965 -50.0382 0.515498 -1 0 5
18005 1282 6 70.3601 -48.7622 80.6159 -1 0 4
18001 1282 5 71.1429 -53.0167 1.2759 -1 0 5
14106 632 5 75.5789 -52.942 4.20072 -1 0 1
12816 417 5 73.2647 -53.0457 10.1844 1 0 -2
14105 632 6 75.3477 -51.8063 3.34228 -1 0 1
14104 632 6 76.5435 -50.7819 3.19006 -1 0 1
14103 632 6 76.2716 -49.6194 2.41483 -1 0 1
14102 632 6 77.3865 -48.7004 2.2528 -1 0 1
14101 632 5 78.6666 -49.2793 1.57511 -1 0 1
18397 1348 5 76.1588 -49.9413 8.00631 -1 0 0
12750 406 5 80.6285 54.2398 3.84602 0 -1 0
15392 847 6 78.984 -45.3628 4.93709 1 0 0
18398 1348 6 77.2052 -50.368 8.92757 -1 0 0
14580 711 5 82.1594 -48.0846 79.7809 -5 1 0
17766 1242 5 79.9857 -43.6196 79.6169 4 0 2
17763 1242 6 1.02343 -44.4121 0.248189 5 1 3
17765 1242 6 81.4512 -43.4757 80.0893 4 0 2
17762 1242 6 1.50815 -45.0711 1.45394 5 1 3
17761 1242 5 3.14707 -45.1214 1.51324 5 1 3
17764 1242 6 81.9533 -44.2177 0.276401 4 1 3
15846 922 5 81.434 -41.7078 8.00777 -3 1 0
21333 1837 6 5.13927 -39.8307 4.9837 1 0 -2
21334 1837 6 3.58281 -39.6484 5.37091 1 0 -2
21335 1837 6 2.862 -40.8517 5.76117 1 0 -2
21336 1837 5 2.95195 -42.0332 4.69558 1 0 -2
21966 1942 5 81.4867 -42.1145 4.14472 -2 1 -4
21964 1942 6 81.9444 -39.4586 4.60308 -2 1 -4
10748 73 6 6.21856 -41.2538 0.953188 1 0 0
10749 73 6 5.36285 -40.8534 80.9309 1 0 -1
10750 73 6 3.87701 -40.9053 0.391636 1 0 0
21965 1942 6 81.7987 -40.7059 3.56225 -2 1 -4
15844 922 6 79.8633 -40.6053 9.98146 -3 0 0
10751 73 6 3.05614 -39.8117 80.6567 1 0 -1
10752 73 5 2.78557 -38.4664 0.367676 1 0 0
13182 478 5 10.6915 -43.8549 0.936813 -3 1 1
15190 813 6 16.207 -45.0781 2.22409 0 0 0
17100 1131 5 13.649 -39.2766 2.1433 2 0 1
17099 1131 6 13.6885 -40.0035 3.48523 3 0 1
15976 944 6 8.44714 -45.3155 5.01657 1 0 -1
15975 944 6 9.92329 -45.1042 5.03402 1 0 -1
15974 944 6 10.5346 -45.5173 6.51156 1 0 -1
15973 944 5 11.9988 -45.2263 6.84663 1 0 -1
15191 813 6 15.8396 -43.6868 2.44113 0 0 0
10747 73 5 7.75589 -41.1888 0.467289 1 0 0
17098 1131 6 12.2916 -40.5274 3.97264 3 0 1
17097 1131 6 12.3788 -41.3232 5.19338 2 0 1
17096 1131 6 10.8943 -41.5705 5.91136 2 0 1
15978 944 5 6.29067 -45.6496 3.57143 0 0 -1
15977 944 6 7.8026 -45.2399 3.68158 1 0 -1
13154 474 6 21.6276 -44.0052 2.90821 -1 0 2
13153 474 5 20.2361 -44.6255 2.55336 -2 0 1
15192 813 5 15.4806 -43.3924 3.91861 0 0 0
13156 474 6 23.4791 -42.4663 1.98999 -2 0 1
13155 474 6 22.1083 -43.0886 1.85149 -1 0 1
13157 474 6 23.7384 -41.2798 1.18956 -2 0 1
13158 474 5 25.0133 -40.6593 1.75234 -2 0 1
12835 421 5 22.7795 -35.2143 5.13007 0 0 -1
17065 1126 5 19.9257 -37.9738 2.23801 3 1 0
17066 1126 6 19.0588 -38.6337 3.33514 3 1 0
17067 1126 6 19.4082 -40.0098 3.67152 3 1 0
17068 1126 6 18.4814 -40.3751 4.91548 3 1 0
17069 1126 6 18.7887 -41.805 5.55729 3 1 0
17070 1126 5 20.2911 -41.8281 5.9079 3 1 0
16749 1073 6 26.1584 -46.7987 4.08934 -5 1 -1
12366 342 5 26.354 -44.8442 79.3298 3 0 -5
12682 395 6 32.7998 -45.4615 1.46286 -1 0 0
16750 1073 6 26.5508 -46.0888 5.47462 -5 1 -1
16752 1073 5 26.6941 -43.4788 4.67845 -5 1 -1
11328 169 5 29.5408 -46.183 8.15155 1 0 3
11327 169 6 30.1619 -47.3912 7.62453 1 0 3
19643 1555 6 28.196 -40.3952 6.1715 2 0 1
19988 1613 6 30.234 -42.2454 2.42786 2 0 0
19987 1613 5 29.0473 -42.7279 1.54334 2 0 0
19989 1613 6 31.2099 -41.2898 1.77374 1 0 0
19644 1555 5 27.5397 -39.2873 5.41744 2 0 1
16751 1073 6 27.4204 -44.6947 5.43779 -5 1 -1
12681 395 6 32.3416 -45.9514 0.146657 -1 0 0
16260 991 5 29.2382 -37.7255 -0.0266183 0 1 -2
12684 395 5 32.4289 -45.3924 4.17075 -1 0 0
19990 1613 6 32.1939 -40.7949 2.7186 1 0 0
12683 395 6 31.8872 -45.7981 2.71131 -1 0 0
18902 1432 6 39.9326 -43.1988 2.25981 -2 1 -2
18904 1432 6 37.8257 -42.8887 3.6368 -2 1 -2
19992 1613 5 32.4492 -38.365 2.19075 1 0 0
19991 1613 6 33.0589 -39.649 2.30874 1 0 0
18906 1432 5 36.039 -42.7662 5.27617 -2 1 -2
18905 1432 6 36.4233 -43.4295 3.96919 -2 1 -2
18901 1432 5 41.0447 -43.6437 3.26391 -2 1 -2
18903 1432 6 38.4928 -43.6697 2.56248 -2 1 -2
21064 1792 6 38.7061 -38.6097 4.70791 0 1 3
21062 1792 6 37.2939 -38.2989 2.53233 0 1 3
21063 1792 6 37.283 -38.656 4.04374 0 1 3
21065 1792 6 38.6622 -39.3863 5.99212 0 1 3
21066 1792 5 39.9141 -39.3697 6.86905 0 1 3
16356 1007 5 40.1534 -44.2183 7.62192 -1 0 1
16355 1007 6 39.4618 -45.601 7.24077 -1 0 1
21061 1792 5 38.3479 -39.1878 1.78759 0 1 3
11702 232 6 45.8242 -45.274 5.07073 0 0 2
11701 232 5 47.0673 -44.265 5.1355 0 0 2
21229 1820 5 42.3194 -44.1393 78.7561 0 1 -2
21234 1820 5 45.2154 -41.2474 1.58221 0 1 -1
21233 1820 6 43.8119 -40.5152 1.09964 0 1 -1
21231 1820 6 43.1693 -42.547 80.6846 0 1 -2
21232 1820 6 42.6462 -41.3809 0.674118 0 1 -1
14813 750 6 43.091 -41.6352 7.63141 0 1 -1
20109 1633 6 49.6488 -38.8715 1.77574 2 1 -1
21230 1820 6 42.0073 -43.4792 80.0556 0 1 -2
20112 1633 5 49.2968 -41.1016 4.57675 2 1 -1
20110 1633 6 50.4426 -39.1112 3.14952 2 1 -1
20111 1633 6 49.5588 -39.6191 4.43994 2 1 -1
17431 1187 5 51.0125 -44.3473 1.2589 2 0 3
20108 1633 6 50.4802 -38.479 0.482776 2 1 -1
14814 750 5 43.8606 -41.5125 6.21121 0 1 -1
17432 1187 6 49.7897 -43.929 2.05055 2 0 3
17433 1187 6 48.4053 -43.883 1.47112 1 0 3
11090 130 6 51.6658 -47.1161 5.02046 3 0 1
20107 1633 5 51.4361 -37.2611 0.852772 2 1 -1
11094 130 5 54.9721 -43.8912 2.96132 3 0 1
11093 130 6 54.0008 -45.0443 2.7073 3 0 1
11092 130 6 53.2523 -45.5786 3.90343 3 0 1
20813 1750 6 53.3842 -41.3633 5.64738 0 0 2
20814 1750 5 53.7015 -42.1168 6.89369 0 0 2
20812 1750 6 54.474 -40.6017 5.0027 0 0 2
11091 130 6 52.3572 -46.8305 3.7753 3 0 1
20811 1750 6 54.2055 -40.1307 3.64423 0 0 2
20810 1750 6 55.4121 -39.5211 3.03335 0 0 2
20809 1750 5 56.497 -40.5716 2.87701 0 0 2
21726 1902 5 53.2379 -35.8082 4.42451 -2 0 3
18068 1293 6 53.9882 -42.3143 80.2377 1 1 -2
18067 1293 5 54.2727 -43.8107 79.9433 1 1 -2
11971 277 5 60.9773 -41.6803 4.04421 0 1 -2
11972 277 6 60.8288 -42.5918 5.21198 0 1 -2
11974 277 6 58.5999 -41.7114 5.86355 0 1 -2
11973 277 6 59.9964 -41.9446 6.34374 0 1 -2
18182 1312 6 67.3551 -44.6945 8.16337 0 1 3
18183 1312 6 66.4011 -45.7887 7.61751 0 1 3
17365 1176 5 65.2738 -37.5402 2.94757 0 0 0
17366 1176 6 64.9742 -38.3812 1.7312 0 0 0
18184 1312 6 65.9641 -45.4633 6.24721 0 1 3
14333 670 6 62.4778 -36.1245 5.19108 1 0 -1
14334 670 5 62.496 -35.837 6.70825 1 0 -1
17367 1176 6 64.2317 -37.6026 0.613471 0 0 0
17368 1176 6 63.536 -38.522 80.5884 0 0 -1
17369 1176 6 64.5263 -39.3664 79.8427 0 0 -1
18181 1312 5 68.1991 -45.1334 9.29794 0 1 3
21681 1895 6 69.304 -37.3322 2.25728 1 0 0
21680 1895 6 70.5749 -37.9814 1.87147 1 0 0
14161 642 5 65.5248 -48.2621 3.17966 2 0 2
14985 779 6 71.6532 -50.2502 5.51076 -1 1 2
14986 779 6 71.3027 -48.817 4.94479 -1 1 2
15142 805 6 67.2159 -37.8619 6.7233 2 1 3
15143 805 6 68.1712 -39.0673 6.40044 2 1 3
15144 805 5 69.5522 -39.0671 6.9001 2 1 3
14988 779 5 70.6006 -46.5026 5.78355 -1 1 2
14987 779 6 70.5322 -47.9768 5.98 -1 1 2
14366 676 6 71.5771 -43.0288 80.5642 1 0 0
21679 1895 5 71.799 -37.4486 2.71374 1 0 0
14785 746 5 66.7338 -45.5208 -0.173529 -1 1 -3
14786 746 6 67.6179 -44.3671 81.0013 -1 1 -3
15391 847 5 78.2459 -44.9015 3.78029 1 0 0
15393 847 6 78.2574 -45.2516 6.23291 1 0 0
15502 865 6 76.0949 -46.7146 80.6742 1 1 -2
15504 865 5 76.0578 -44.5964 1.1135 1 1 -1
16435 1021 5 71.1022 -42.3738 4.99637 -4 0 1
16437 1021 6 72.6229 -40.3646 4.27399 -4 0 1
16438 1021 6 73.931 -41.137 3.65686 -4 0 1
16439 1021 6 75.3348 -40.5554 3.76391 -4 0 1
16440 1021 5 75.5812 -39.7663 2.51567 -4 0 1
14365 676 5 72.8587 -42.2343 80.6769 1 0 0
16436 1021 6 71.2977 -41.1042 4.14276 -4 0 1
17741 1238 6 77.9511 -37.5115 7.41546 0 0 1
20435 1687 6 74.5403 -37.1305 80.5661 3 0 1
21332 1837 6 5.6732 -38.5327 4.32393 1 0 -2
21331 1837 5 7.33268 -38.5152 4.03882 1 0 -2
21963 1942 6 81.957 -38.1762 3.79479 -2 1 -4
21961 1942 5 82.3851 -35.6439 3.86741 -2 1 -4
21962 1942 6 82.0929 -36.9818 4.61027 -2 1 -4
15892 930 6 1.16249 -28.3857 6.3964 4 1 -2
16631 1053 6 10.6512 -35.9482 7.15947 -1 0 -1
16632 1053 5 9.08554 -35.8166 7.29466 -1 0 -1
21512 1867 6 1.82533 -38.5227 9.03478 2 1 1
15363 842 6 6.29188 -35.5188 0.559359 -3 0 1
21513 1867 6 1.59087 -37.3368 9.94867 2 1 1
21514 1867 6 1.98233 -36.1194 9.22084 2 1 1
21515 1867 6 1.04665 -34.9209 9.64095 2 1 1
21516 1867 5 1.3503 -33.5412 8.89584 2 1 1
15362 842 6 5.46566 -35.8859 1.72804 -3 0 1
14593 714 5 0.5483 -31.9351 80.2341 -1 1 -2
15364 842 6 7.03059 -34.1006 0.660261 -3 0 1
16628 1053 6 11.217 -36.2686 3.18326 -1 0 -1
16629 1053 6 10.8407 -36.6731 4.66576 -1 0 -1
17095 1131 5 10.1793 -40.3261 6.44398 2 0 1
16630 1053 6 11.2118 -35.7089 5.67249 -1 0 -1
10803 82 6 14.116 -33.4717 6.60526 -1 0 -2
16627 1053 5 10.5337 -35.0079 2.55375 -1 0 -1
10801 82 5 12.6828 -31.9024 7.96039 -1 0 -2
10802 82 6 14.0342 -32.3922 7.53874 -1 0 -2
15811 917 5 14.9221 -32.1912 2.97704 -4 1 3
15812 917 6 15.2842 -31.0765 1.90822 -4 1 3
10804 82 6 15.4327 -34.143 6.68995 -1 0 -2
15541 872 5 13.9235 -33.9612 0.228789 0 1 1
15365 842 6 7.92862 -33.5658 80.5398 -3 0 0
10805 82 6 15.6429 -35.2183 5.65995 -1 0 -2
15366 842 5 8.36161 -32.0146 80.6358 -3 0 0
15542 872 6 14.8155 -35.0406 80.9244 0 1 0
10806 82 5 17.1027 -35.6655 5.85956 -1 0 -2
20790 1746 5 25.4737 -35.7234 1.40367 0 1 -2
20788 1746 6 25.8761 -33.4097 2.3921 0 1 -3
18210 1316 5 19.4528 -33.0004 5.92935 2 1 2
18208 1316 6 19.3343 -30.6793 6.74173 2 1 2
18207 1316 6 19.3555 -30.1892 5.17183 2 1 2
18206 1316 6 18.5853 -29.0759 4.86645 2 1 2
18205 1316 5 17.0573 -29.4316 4.86692 2 1 2
18209 1316 6 20.1371 -31.8853 6.74076 2 1 2
20786 1746 6 24.2619 -31.9299 3.84037 0 1 -3
20787 1746 6 25.1987 -31.9696 2.61706 0 1 -3
20789 1746 6 24.8995 -34.5746 2.25361 0 1 -2
13541 538 6 25.5966 -26.0768 0.967877 0 1 0
13542 538 5 25.6911 -26.892 80.6886 0 1 -1
15813 917 6 16.6934 -31.0353 1.3837 -4 1 3
21265 1826 5 27.8546 -30.5442 5.50058 1 1 2
21266 1826 6 26.6563 -30.3796 6.3214 1 1 2
13908 599 5 30.1296 -35.6763 6.18796 2 0 -1
18385 1346 5 26.2064 -36.8555 8.21805 -3 1 5
18386 1346 6 27.4313 -35.8535 8.63146 -3 1 5
13907 599 6 29.1463 -36.0269 4.97289 2 0 -1
13906 599 6 29.7761 -35.8554 3.51637 2 0 -1
11733 237 6 31.6505 -30.1805 3.84629 0 1 2
13904 599 6 30.3784 -34.0397 1.99535 2 0 -1
11732 237 6 31.8106 -29.511 5.29016 0 1 2
11731 237 5 31.7692 -30.5652 6.48302 0 1 2
13905 599 6 29.9319 -34.4105 3.30492 2 0 -1
13903 599 5 31.6723 -34.5031 1.43735 2 0 -1
21267 1826 6 26.2236 -31.702 7.09403 1 1 2
21268 1826 6 25.0149 -31.6245 7.96915 1 1 2
16259 991 6 27.7958 -37.8686 80.2123 0 1 -2
14646 722 5 35.4541 -34.7309 5.13942 3 1 3
14645 722 6 34.839 -35.1186 6.48356 3 1 3
14644 722 6 34.3379 -36.5996 6.52619 3 1 3
17035 1121 5 35.7074 -29.4734 3.64998 1 1 2
17036 1121 6 35.6258 -29.8673 5.16891 1 1 2
14643 722 6 34.1665 -37.3572 7.85821 3 1 3
17037 1121 6 36.3761 -29.0563 6.10408 1 1 2
10919 101 6 40.036 -30.8157 2.28347 -1 0 1
10918 101 6 40.6298 -32.0797 1.80577 -1 0 1
10917 101 6 41.4338 -32.8208 2.95394 -1 0 1
10916 101 6 41.5018 -34.3331 2.75205 -1 0 1
10915 101 5 40.2415 -35.1198 3.14394 -1 0 0
17038 1121 6 35.9361 -27.5181 6.00924 1 1 2
17586 1212 5 39.4897 -35.2993 7.98786 1 1 -2
17585 1212 6 40.9486 -34.9882 8.26095 1 1 -2
15684 895 5 35.2396 -31.8469 0.790002 4 1 1
22076 1961 6 45.2064 -35.0028 2.61153 0 0 0
22077 1961 6 45.8359 -33.5479 2.92796 0 0 0
22079 1961 6 45.9405 -31.1714 1.90193 0 0 0
22078 1961 6 45.1294 -32.3973 1.96387 0 0 0
22075 1961 5 45.6819 -35.5206 1.33661 0 0 0
15636 887 5 46.298 -37.8636 5.85686 2 1 2
21721 1902 5 48.4355 -31.9092 6.44564 -2 0 3
21722 1902 6 49.8255 -32.5844 6.49573 -2 0 3
22080 1961 5 45.6148 -30.1552 0.726998 0 0 0
17584 1212 6 41.1453 -33.6879 8.93566 1 1 -2
14617 718 5 43.462 -31.5065 5.97903 1 0 1
14618 718 6 44.8082 -30.8712 6.26148 1 0 1
21724 1902 6 51.6469 -34.0333 5.60241 -2 0 3
21723 1902 6 50.3743 -33.2744 5.30707 -2 0 3
14780 745 6 50.7254 -33.8557 79.7735 1 0 -1
14779 745 5 49.4 -34.5816 79.1723 1 0 -1
10753 74 5 50.7859 -29.6468 1.54171 0 1 -1
14781 745 6 52.0137 -33.8488 78.9855 1 0 -1
14782 745 6 53.3417 -33.7801 79.6548 1 0 -1
14783 745 6 53.4705 -32.5627 80.5752 1 0 -1
14784 745 5 54.8736 -32.5007 0.371822 1 0 0
21725 1902 6 51.8703 -35.0709 4.55629 -2 0 3
15565 876 5 54.9527 -33.4127 7.46145 0 0 3
14330 670 6 59.4607 -37.8022 3.33756 1 0 -1
14329 670 5 58.8763 -38.0948 2.0149 1 0 -1
14331 670 6 60.7767 -37.0532 3.39226 1 0 -1
14332 670 6 61.1412 -36.8887 4.89126 1 0 -1
13127 469 6 59.8151 -32.9526 4.7666 -1 0 -1
13126 469 6 60.2689 -32.2184 6.05475 -1 0 -1
13125 469 6 59.5716 -32.8136 7.25851 -1 0 -1
13128 469 5 60.5112 -32.4846 3.49778 -1 0 -1
18576 1377 5 63.4591 -31.3766 7.11088 -1 1 0
15141 805 6 67.9001 -36.47 6.52788 2 1 3
21682 1895 6 69.2769 -35.8974 2.03549 1 0 0
21683 1895 6 67.7128 -35.2487 2.12205 1 0 0
21684 1895 5 67.7374 -33.745 2.25073 1 0 0
10885 96 5 70.5723 -32.1649 3.6355 3 0 4
15139 805 5 67.1873 -34.0837 6.32386 2 1 3
15140 805 6 66.7338 -35.5006 6.30202 2 1 3
10887 96 6 72.3332 -34.1945 3.94139 3 0 4
10886 96 6 71.7154 -32.7805 4.46378 3 0 4
10888 96 6 73.5342 -34.7023 4.6032 3 0 4
15893 930 6 1.3145 -27.4514 7.64806 4 1 -2
14594 714 6 81.5633 -31.2768 80.0214 -1 1 -2
21667 1893 5 74.5432 -31.207 1.95971 -1 1 3
17232 1153 5 79.4913 -30.2734 6.21417 -2 0 1
17231 1153 6 79.9729 -31.4427 5.24518 -2 0 1
17230 1153 6 78.9944 -31.5352 4.00631 -2 0 1
17228 1153 6 79.1234 -34.0172 3.62411 -2 0 1
17229 1153 6 79.4652 -32.6958 3.0751 -2 0 1
17227 1153 5 77.7857 -34.766 3.0625 -2 0 1
10889 96 6 73.4357 -35.0709 5.95774 3 0 4
10890 96 5 74.7555 -34.7571 6.73368 3 0 4
21668 1893 6 75.5983 -30.0414 1.48643 -1 0 3
17740 1238 6 79.0234 -36.2765 7.43301 0 0 1
17742 1238 5 77.6565 -38.0983 6.00384 0 0 1
14595 714 6 80.356 -32.2367 80.0402 -1 1 -2
20436 1687 5 75.0259 -35.7193 -0.118496 3 0 1
15891 930 6 1.02067 -29.7688 6.8025 4 1 -2
15889 930 5 2.40103 -31.1613 5.13884 4 1 -2
15890 930 6 1.00714 -30.8074 5.63321 4 1 -2
15775 911 5 3.46418 -25.7533 2.32117 -4 0 -1
19559 1541 6 6.19052 -20.9244 4.08922 1 1 -1
19916 1601 6 1.73988 -23.2809 6.02288 0 0 1
19915 1601 5 0.97792 -24.4034 5.23903 0 0 1
19917 1601 6 0.777669 -22.613 7.10387 0 0 1
19557 1541 6 6.16577 -23.4983 3.92887 1 1 -1
19556 1541 6 6.18771 -23.6599 5.47937 2 1 -1
19918 1601 6 1.4348 -21.5367 8.08744 0 0 1
19919 1601 6 2.742 -22.2226 8.71308 0 0 1
19555 1541 5 5.73271 -25.0194 6.00126 2 1 -1
19558 1541 6 6.7075 -22.1255 3.35183 1 1 -1
16116 967 5 7.12405 -29.938 3.38706 2 1 -2
15594 880 5 7.40619 -23.5249 78.2292 3 1 1
14407 683 5 12.0088 -25.9079 0.654976 -1 0 1
14408 683 6 11.4083 -25.3309 2.04773 -1 0 1
14410 683 6 13.7006 -25.6544 3.02388 -1 0 1
14409 683 6 12.6042 -24.7434 2.78981 -1 0 1
14411 683 6 14.6556 -25.1099 4.03343 -1 0 1
6467 1 2 1.4107325752087004e+01 -2.3594596607320685e+01 7.7615692769371600e+00 0 0 0
6466 1 2 1.5654044253151836e+01 -2.3196411925340289e+01 7.8273183325505356e+00 0 0 0
6465 1 2 1.6099211122746993e+01 -2.1775368024611343e+01 8.3790031835557688e+00 0 0 0
16115 967 6 7.24017 -28.3787 3.64418 2 1 -2
16114 967 6 8.67856 -27.8636 3.55212 2 1 -2
6234 1 1 1.2032797297836529e+01 -2.0234710905344933e+01 3.1760716508044378e+00 0 0 0
14412 683 5 16.0397 -25.586 3.91966 -1 0 1
16113 967 6 9.48336 -28.2729 4.81304 2 1 -2
16112 967 6 11.0825 -28.1221 4.78061 2 1 -2
16111 967 5 11.656 -28.9505 3.64947 2 1 -2
18669 1393 6 17.5544 -21.087 1.31323 0 0 0
18668 1393 6 16.4343 -20.0951 1.76492 0 0 0
13540 538 6 24.632 -24.9547 1.0362 0 1 0
21160 1808 6 19.733 -23.429 4.2013 2 1 0
21159 1808 6 20.6687 -24.5217 3.79539 2 1 0
21161 1808 6 20.465 -22.1383 4.71981 2 1 0
21158 1808 6 20.0369 -25.3145 2.62182 2 1 0
21162 1808 5 19.4369 -20.93 4.92111 2 1 0
21157 1808 5 20.9657 -26.6244 2.14339 2 1 0
15816 917 5 17.2815 -27.3271 80.5566 -4 1 2
15815 917 6 17.2919 -28.2709 0.732708 -4 1 3
15814 917 6 17.2993 -29.8523 0.42474 -4 1 3
16026 952 5 24.094 -27.4819 8.42687 2 1 1
11735 237 6 30.7176 -29.8382 1.59463 0 1 2
11736 237 5 30.5667 -28.8846 0.329479 0 1 2
13537 538 5 24.0815 -21.731 3.33009 0 1 0
13538 538 6 23.9459 -22.6414 2.2262 0 1 0
13539 538 6 24.7579 -24.1223 2.27287 0 1 0
15025 786 5 27.2564 -25.0208 5.85406 0 1 0
16025 952 6 23.1304 -26.751 9.34585 2 1 1
16024 952 6 23.5065 -27.0316 10.8545 2 1 1
11734 237 6 31.2771 -29.1333 2.7938 0 1 2
19684 1562 6 31.6532 -23.1047 2.09591 -2 1 3
15027 786 6 29.588 -24.0286 6.21926 0 1 0
15026 786 6 28.0711 -23.9668 6.53125 0 1 0
15028 786 6 30.2966 -23.1734 7.19526 0 1 0
15029 786 6 31.8824 -23.0463 7.21359 0 1 0
15030 786 5 32.4092 -22.1381 8.30331 0 1 0
16023 952 6 24.8456 -26.4364 11.265 2 1 1
19685 1562 6 31.0808 -22.0269 3.15405 -2 1 3
10920 101 5 39.1481 -30.0762 1.18606 -1 0 1
20958 1774 5 42.3288 -24.2715 6.55571 -1 0 -1
20957 1774 6 41.1526 -24.8977 5.7899 -1 0 -1
20956 1774 6 40.8237 -24.2816 4.34198 -1 0 -1
18337 1338 5 37.3755 -19.8734 6.61584 0 0 2
20955 1774 6 39.6973 -24.9241 3.51831 -1 0 -1
17039 1121 6 36.5673 -26.5426 6.99373 1 1 2
17040 1121 5 36.4164 -27.1404 8.41813 1 1 2
18338 1338 6 36.8309 -20.9885 5.62759 0 0 2
16519 1035 5 39.5792 -30.5428 7.80486 -2 1 1
20954 1774 6 39.9959 -24.8134 2.05281 -1 0 -1
7095 1 2 3.9708574349271785e+01 -2.1396132764021310e+01 8.0559381614841044e+01 0 0 0
16520 1035 6 40.451 -29.3305 7.27415 -2 1 1
16521 1035 6 41.4458 -28.802 8.32328 -2 1 1
18339 1338 6 36.4954 -20.475 4.27015 0 0 2
18340 1338 6 35.7547 -21.4453 3.28645 0 0 2
20953 1774 5 38.8713 -25.4954 1.1074 -1 0 -1
14619 718 6 45.1551 -29.4982 5.47268 1 0 1
14620 718 6 44.1634 -28.332 5.78701 1 0 1
14621 718 6 44.1949 -27.2565 4.57761 1 0 1
14622 718 5 43.3917 -27.6888 3.25466 1 0 1
7512 1 1 4.4376297531950677e+01 -2.2645201401813654e+01 3.4084456407768893e+00 0 0 0
7511 1 2 4.4130539471399359e+01 -2.1125213549362236e+01 3.2563160184976390e+00 0 0 0
21295 1831 5 49.7602 -24.8264 5.63378 0 0 3
21296 1831 6 48.6801 -25.8152 5.56312 0 0 3
7294 1 2 4.2535894911659653e+01 -2.3920619295514346e+01 8.0113091808365496e+01 0 0 0
10758 74 5 49.972 -23.83 1.62376 0 1 -1
10757 74 6 50.0646 -25.2539 2.12921 0 1 -1
7295 1 2 4.2102823148993870e+01 -2.5282568309411616e+01 7.9523895343780126e+01 0 0 0
10755 74 6 51.2257 -27.3647 2.78165 0 1 -1
10756 74 6 51.3626 -25.8465 2.27834 0 1 -1
17200 1148 6 53.5515 -22.8569 4.79952 2 0 -2
10754 74 6 50.3839 -28.2063 1.70306 0 1 -1
17199 1148 6 53.0114 -22.9969 6.20509 2 0 -2
17198 1148 6 53.7244 -24.1854 6.92606 2 0 -2
17197 1148 5 53.6118 -25.453 6.0377 2 0 -2
13298 498 6 58.6515 -28.4963 4.78214 -3 0 -1
13297 498 5 57.3413 -28.0929 5.52067 -3 0 -1
15214 817 6 50.9467 -29.3146 9.09194 2 0 -2
15216 817 5 51.9122 -28.9368 6.76964 2 0 -2
15215 817 6 51.3515 -28.2802 8.03453 2 0 -2
11545 206 5 56.7324 -23.5787 2.37815 0 1 -2
11547 206 6 55.0795 -25.5245 2.12477 0 1 -2
11546 206 6 56.6635 -25.1451 2.05796 0 1 -2
18407 1349 6 58.82 -22.4203 7.10123 1 0 1
18408 1349 5 59.3382 -22.7905 8.56077 1 0 1
17202 1148 5 54.0075 -21.37 2.81626 2 0 -2
17201 1148 6 53.3031 -21.4894 4.14533 2 0 -2
11548 206 6 54.6985 -26.8883 1.71824 0 1 -2
11550 206 5 53.7876 -28.3141 80.8743 0 1 -3
11549 206 6 54.5691 -27.0986 0.250248 0 1 -2
13299 498 6 58.5211 -28.072 3.33075 -3 0 -1
13300 498 6 59.8417 -27.8211 2.65762 -3 0 -1
18403 1349 5 58.8802 -19.6197 3.49153 1 0 1
20257 1658 5 58.3938 -26.2353 11.4822 2 0 1
20258 1658 6 59.9559 -26.3043 11.163 2 0 1
20259 1658 6 60.2279 -26.8379 9.75488 2 0 1
20260 1658 6 61.6223 -26.5807 9.14784 2 0 1
20261 1658 6 61.9701 -27.4798 7.95661 2 0 1
21346 1839 6 65.149 -27.6726 1.17702 -5 0 1
20262 1658 5 63.2988 -27.306 7.41651 2 0 1
14977 778 5 67.7618 -23.0223 6.30369 0 1 0
21348 1839 5 66.5461 -26.368 2.73544 -5 0 1
17154 1140 5 72.9345 -29.2103 4.67015 -1 0 -1
14981 778 6 67.0006 -20.9794 1.95121 0 1 0
14982 778 5 65.6546 -21.7236 1.74504 0 1 0
14979 778 6 67.3187 -21.8563 4.17345 0 1 0
14634 720 5 69.77 -28.4218 1.69383 2 1 -1
14630 720 6 71.8616 -23.8294 80.9918 2 1 -2
14631 720 6 71.533 -25.4571 80.8155 2 1 -2
14632 720 6 70.8289 -26.1626 0.911014 2 1 -1
14629 720 5 72.855 -23.2081 79.9462 2 1 -2
12780 411 5 70.6527 -25.778 5.55551 3 0 1
14633 720 6 70.7438 -27.7098 0.810622 2 1 -1
14980 778 6 67.3176 -20.6528 3.39526 0 1 0
14978 778 6 67.7243 -21.7165 5.629 0 1 0
12779 411 6 69.6091 -27.0343 5.36006 3 0 1
12778 411 6 68.9411 -27.4247 6.58318 3 0 1
15894 930 5 0.032212 -27.5283 8.43545 4 1 -2
16099 965 5 78.2351 -20.6041 0.0235806 1 1 0
21669 1893 6 76.1872 -29.2238 2.75909 -1 1 3
16100 965 6 77.8823 -19.2611 80.4414 1 1 -1
20251 1657 5 0.128901 -27.5998 2.58055 0 1 3
20252 1657 6 81.5472 -26.9076 1.86867 -1 1 3
21671 1893 6 76.7203 -27.3877 1.17233 -1 1 3
12236 321 6 75.4983 -24.1977 4.22818 -2 0 0
12238 321 6 77.859 -24.1972 5.27915 -2 0 0
12239 321 6 78.1007 -25.0545 6.60105 -2 0 0
12240 321 5 79.4894 -25.4187 6.77111 -2 0 0
12237 321 6 76.4476 -23.4232 5.11041 -2 0 0
12235 321 5 74.1368 -23.4702 4.13832 -2 0 0
21670 1893 6 77.225 -28.0223 2.33569 -1 0 3
19560 1541 5 6.91257 -19.6882 3.45978 1 1 -1
6033 1 2 2.8387423536095264e+00 -2.0889904960540338e+01 1.8503046746914373e-01 1 0 0
6032 1 2 2.8675362410490655e+00 -1.9609702864853126e+01 9.5950113860014574e-01 1 0 0
6031 1 2 2.7469410979716882e+00 -1.9658054803803385e+01 2.4069036129071888e+00 1 0 0
6030 1 2 2.9037801054550889e+00 -1.8296645160078281e+01 2.9396418082105025e+00 1 0 0
6029 1 2 2.3593759038378410e+00 -1.7920284851557902e+01 4.2513764400772835e+00 1 0 0
6028 1 2 2.2387512170126778e+00 -1.6354947713281952e+01 4.3700058339449184e+00 1 0 0
6027 1 2 1.8881357959891096e+00 -1.5998004349826916e+01 5.7962353811909351e+00 1 0 0
6026 1 2 1.8264578485889376e+00 -1.4516518981968368e+01 5.8603402800049835e+00 1 0 0
8154 1 2 5.2784714847261727e-01 -1.3216234244612460e+01 2.2088583755956042e+00 0 0 1
6197 1 2 6.7612378453155548e+00 -1.3872978553383968e+01 1.6802579273684439e+00 0 0 1
6270 1 1 5.1856319118116225e+00 -1.8704193909908309e+01 6.9385451873268229e+00 0 0 0
6196 1 2 6.4431104561848311e+00 -1.2914526017152046e+01 2.8999145614779467e+00 0 0 1
6198 1 1 7.0902684352174044e+00 -1.5355277323651761e+01 1.9495408612876370e+00 0 0 1
8155 1 2 1.8902653579771178e+00 -1.3652334429458620e+01 1.6672550770036969e+00 0 0 1
8153 1 2 8.1942255756745112e+01 -1.4308466156803711e+01 2.1670338795046451e+00 -1 0 1
15331 837 5 7.81933 -20.0402 80.9181 4 1 -3
11160 141 5 10.2365 -17.8493 5.84938 1 1 -2
11159 141 6 9.41568 -17.0448 4.79338 1 1 -2
11158 141 6 9.03889 -15.5575 5.30181 1 1 -2
11157 141 6 10.1234 -14.6984 5.98067 1 1 -2
6464 1 2 1.5935792456592841e+01 -2.0706308514562902e+01 7.2495227095424957e+00 0 0 0
6459 1 2 1.4790301550160221e+01 -1.5339754870947868e+01 7.4477841074390003e+00 0 0 0
6461 1 2 1.4252185813316375e+01 -1.7721496856640446e+01 6.9145959113919977e+00 0 0 0
6460 1 2 1.3968463342255541e+01 -1.6282234794712497e+01 6.6201628470128302e+00 0 0 0
14610 716 5 9.69236 -24.3342 7.60249 -1 1 1
6439 1 2 1.3981719502915720e+01 -1.3544032977406674e+01 2.9941719176021859e+00 0 0 0
14609 716 6 9.51667 -23.3446 6.46435 0 1 1
6438 1 2 1.4275954592457808e+01 -1.2027695657704216e+01 3.0189528155821814e+00 0 0 0
6233 1 2 1.2685896460068321e+01 -2.0330030391462273e+01 1.8522898152249525e+00 0 0 0
6440 1 2 1.4370285730181754e+01 -1.3962065364042111e+01 1.6635315599036429e+00 0 0 0
6441 1 2 1.3590630209294204e+01 -1.5254936685409099e+01 1.2440370599076347e+00 0 0 0
18667 1393 5 16.6067 -19.2234 3.09677 0 0 0
6462 1 2 1.5684952557366506e+01 -1.8105753276228427e+01 6.5435354077750025e+00 0 0 0
6463 1 2 1.6447840883868381e+01 -1.9202282869385730e+01 7.4409939138308179e+00 0 0 0
6458 1 2 1.4399449812567372e+01 -1.3873461649955779e+01 7.3821120307980683e+00 0 0 0
16095 964 6 19.0058 -14.528 80.915 0 1 0
16096 964 6 19.3354 -13.008 80.8251 0 1 0
16094 964 6 19.1596 -15.1421 1.38948 0 1 1
6681 1 2 2.3236975703069120e+01 -2.1312459485519692e+01 7.3913371786682145e+00 0 0 0
16093 964 5 18.6165 -16.541 1.3975 0 1 1
20365 1676 5 19.2137 -16.5322 7.77706 -1 0 1
6680 1 2 2.2983852397520305e+01 -1.9763367976515408e+01 7.5836476170831082e+00 0 0 0
12654 390 5 19.0496 -13.1271 4.70376 0 0 -2
6640 1 2 2.2791567365558315e+01 -1.4973005255743564e+01 2.8901765899407637e+00 0 0 0